ITEM: TIMESTEP
200000
ITEM: NUMBER OF ATOMS
1920
ITEM: BOX BOUNDS pp pp pp
-1.0135253603097638e+00 4.0213525360305567e+01
-2.1422203948301057e+01 2.1422203948301057e+01
-6.1840576080931243e+01 6.1840576080931243e+01
ITEM: ATOMS id type xs ys zs vx vy vz
1 1 0.00437542 0.967015 0.499579 0.399533 -0.0136563 0.206345
2 1 0.0664647 0.027432 0.501883 -0.0165052 -0.788184 0.173189
3 1 0.0218495 0.921328 0.500981 -0.599299 -0.203963 -0.165556
4 1 0.069727 0.983568 0.500236 -0.518684 0.514943 -0.596159
5 1 0.993349 0.937387 0.500528 -0.461513 -0.082367 -0.0865603
6 1 0.0574208 0.133052 0.499976 -0.338408 -0.590488 0.0573388
7 1 0.0286695 0.00585799 0.503177 -0.078502 0.615568 -0.249479
8 1 0.962636 0.122013 0.499043 -0.574557 -0.181507 0.121354
9 1 0.971575 0.855412 0.501933 0.248194 -0.00579703 0.206662
10 1 0.0957095 0.0762261 0.500177 0.397222 -0.435735 0.110739
11 1 0.972148 0.932853 0.50159 0.145035 -0.120637 -0.623997
12 1 0.252341 0.0894861 0.500119 0.0120655 -0.130775 -0.394094
13 1 0.0519105 0.0817108 0.500459 0.26268 -0.00390375 0.652668
14 1 0.0437523 0.877115 0.501322 0.784866 -0.101562 0.0760936
15 1 0.134374 0.0578568 0.500392 -0.144835 -0.955327 0.747213
16 1 0.20875 0.0502021 0.498538 -0.632389 -0.370297 0.170865
17 1 0.0762508 0.917031 0.500459 -0.762163 -0.371822 0.0693938
18 1 0.208779 0.00622252 0.49999 -0.244332 0.0678976 -0.0460713
19 1 0.193809 0.0224124 0.499333 -0.257789 -0.414765 0.493754
20 1 0.258112 0.0412638 0.500518 -0.712289 -0.736574 -0.171644
21 1 0.233393 0.0814884 0.499643 -0.363796 -0.165349 0.165521
22 1 0.260539 0.92971 0.497925 -0.231647 0.0134754 0.490039
23 1 0.15948 0.0588106 0.50005 0.0567838 -0.860021 -0.172866
24 1 0.167271 0.0218929 0.499123 -0.281263 -0.533626 -0.688916
25 1 0.315953 0.95062 0.498978 1.34613 -0.374602 0.0210369
26 1 0.322049 0.0502713 0.497586 -0.505521 0.026202 -0.853293
27 1 0.27646 0.0951018 0.502558 -0.470655 0.238682 -0.270731
28 1 0.271263 0.0730586 0.499716 -0.238441 -0.784072 0.0974449
29 1 0.548505 0.972011 0.501322 7.47327e-05 0.258922 0.256251
30 1 0.397183 0.135924 0.501998 0.115671 -0.387944 0.201788
31 1 0.437148 0.0568692 0.499011 -0.111343 -0.0305695 0.477064
32 1 0.400549 0.0141173 0.499331 0.107209 -0.174401 0.5932
33 1 0.451189 0.0957493 0.499777 -0.0839189 0.67271 -0.23454
34 1 0.604654 0.974313 0.498818 -0.196018 0.0704643 0.401829
35 1 0.622798 0.958241 0.501145 -0.173983 0.0228774 -0.630108
36 1 0.651262 0.0363903 0.498388 0.149308 -0.728493 -0.131041
37 1 0.591877 0.990927 0.501722 -0.609288 -0.57361 -0.574964
38 1 0.532493 0.0152261 0.500742 -0.369395 0.482252 0.664315
39 1 0.525019 0.908222 0.502345 -0.419208 -0.594348 0.707882
40 1 0.549133 0.909983 0.500581 0.072215 0.150946 -0.836829
41 1 0.422986 0.830125 0.498065 -0.131556 -0.667972 -0.529706
42 1 0.536295 0.0899662 0.499543 0.716618 0.0305666 -0.0610774
43 1 0.629368 0.879997 0.499481 0.255326 0.403554 -0.0406578
44 1 0.506969 0.0186017 0.501301 0.190989 -0.563738 0.0706595
45 1 0.571071 0.949114 0.501219 -0.726779 0.82793 0.697271
46 1 0.584884 0.0346077 0.498702 -0.268164 -0.634636 -0.634909
47 1 0.716807 0.974385 0.500071 0.431472 0.484608 -0.302011
48 1 0.720227 0.0313584 0.50029 -0.118299 -0.206498 0.388873
49 1 0.808498 0.105404 0.49996 0.26604 0.517908 0.372476
50 1 0.556508 0.0961557 0.49845 0.134536 -0.418413 -0.16557
51 1 0.835531 0.144268 0.501435 0.0897156 0.262648 0.225777
52 1 0.560046 0.993111 0.500024 -0.0117418 0.251471 -0.26958
53 1 0.746297 0.127864 0.500969 0.420718 -0.341988 0.0732395
54 1 0.724028 0.0541485 0.502163 -1.21614 0.170882 -0.820613
55 1 0.674029 0.0528742 0.500238 0.176111 -0.140318 0.504548
56 1 0.760466 0.0109759 0.50095 -0.200583 0.42685 -0.597521
57 1 0.768215 0.13044 0.50181 -0.127296 -0.353529 0.112296
58 1 0.785854 0.0700082 0.501453 0.926864 0.227608 -0.689262
59 1 0.744293 0.0397714 0.501421 0.255075 0.629142 0.769906
60 1 0.781217 0.96925 0.49923 1.15372 0.487131 -0.121992
61 1 0.752049 0.975073 0.499997 0.0381099 -0.543082 -1.34681
62 1 0.702035 0.878774 0.500626 -0.262456 0.321755 -0.388608
63 1 0.747606 0.861782 0.501702 0.436879 -0.758555 -0.310004
64 1 0.794961 0.924927 0.503124 0.145546 0.256134 0.000845721
65 1 0.719481 0.946094 0.499157 -0.173573 0.325468 0.662589
66 1 0.735967 0.0818341 0.499582 -0.380304 0.951146 0.255177
67 1 0.740734 0.912908 0.501465 0.0215518 0.872225 0.412493
68 1 0.931518 0.915383 0.502317 -1.04511 0.425267 -0.215722
69 1 0.912036 0.967729 0.501572 -0.175976 0.328381 0.374715
70 1 0.88849 0.918332 0.5016 -0.0192696 0.357837 0.375658
71 1 0.771996 0.922982 0.500505 -0.348375 -0.243335 0.0748028
72 1 0.991162 0.892352 0.501744 0.218119 -0.452063 0.416121
73 1 0.0681566 0.0478865 0.502037 0.458359 -0.192631 -0.110262
74 1 0.901422 0.0700623 0.499944 -0.0284711 -0.465502 -0.231379
75 1 0.933089 0.893855 0.502861 0.397559 -1.08414 0.613588
76 1 0.987694 0.0270485 0.500331 0.473508 0.605866 0.350276
77 1 0.961305 0.0209809 0.499435 0.728921 -0.660603 -0.94428
78 1 0.0977361 0.214665 0.498303 0.35432 0.0461697 -0.0959199
79 1 0.100435 0.0966436 0.499278 -0.104255 0.0947424 -0.0425906
80 1 0.98425 0.175831 0.500133 -0.00885351 0.154766 -0.409337
81 1 0.908609 0.0323825 0.500104 -0.49848 0.470549 -0.324075
82 1 0.126361 0.162618 0.501376 -0.172607 -0.745793 0.207756
83 1 0.123644 0.130854 0.499488 0.502229 -0.204347 0.161388
84 1 0.179379 0.256927 0.499817 -0.183994 -1.02744 1.07108
85 1 0.0277768 0.0549983 0.501485 -0.395452 -0.455434 0.0264982
86 1 0.103623 0.121411 0.499384 -0.210428 -0.682511 -0.459121
87 1 0.0216638 0.0290129 0.500488 0.180612 0.774364 0.106976
88 1 0.100698 0.9574 0.501202 0.526785 -0.748922 0.28591
89 1 0.0918628 0.0451285 0.502208 -0.151222 -0.377294 0.544308
90 1 0.145432 0.0767217 0.499912 -0.166136 -0.554061 0.405871
91 1 0.0128953 0.943375 0.499681 0.504257 0.762818 -0.0839815
92 1 0.0283395 0.967481 0.501085 0.192586 -0.710877 -0.0610773
93 1 0.11549 0.994812 0.500055 -0.135222 0.00855397 0.137121
94 1 0.0918393 0.00168752 0.500318 -0.0497101 0.381869 -0.25646
95 1 0.0753796 0.962077 0.500316 0.599599 0.127183 0.095718
96 1 0.246027 0.974421 0.498836 -0.172115 0.335745 -0.580028
97 1 0.226988 0.993748 0.498283 -0.428613 0.31613 -0.230438
98 1 0.207565 0.211083 0.499065 0.20507 0.807555 0.655468
99 1 0.131369 0.0372145 0.499312 -0.0733911 0.426021 0.120729
100 1 0.152661 0.038187 0.500214 0.534664 0.0498998 0.21733
101 1 0.266326 0.112309 0.500398 0.141626 0.648718 0.308557
102 1 0.289737 0.183176 0.500787 -0.206368 0.300353 0.180277
103 1 0.140748 0.016249 0.499436 -0.149343 0.041242 0.403902
104 1 0.18619 0.0669001 0.502631 -0.180207 0.378517 -0.0573149
105 1 0.187512 0.0911277 0.50069 -0.177804 0.668374 -0.0789758
106 1 0.317583 0.19007 0.498561 -0.0794821 -0.256368 0.0295286
107 1 0.333715 0.17185 0.498278 -0.457358 -0.114258 0.180301
108 1 0.165375 0.0831982 0.498671 1.35846 -0.343208 -0.441661
109 1 0.210668 0.0989845 0.499654 -0.409793 0.160126 0.711743
110 1 0.429621 0.138448 0.500755 0.0532256 -0.162937 -0.14403
111 1 0.344914 0.0568925 0.499309 -0.0165337 0.4394 0.757737
112 1 0.318846 0.288432 0.500802 -0.298314 -0.691649 -1.08304
113 1 0.319554 -0.00034143 0.497835 0.996935 -0.848062 0.28496
114 1 0.477697 0.0586224 0.500307 0.00162118 0.527309 -0.286253
115 1 0.490192 0.0351281 0.500634 -0.257685 0.686247 -0.191395
116 1 0.335881 0.983313 0.496978 -0.0225592 0.11236 -0.213135
117 1 0.547706 0.113758 0.499353 -0.174286 -0.157187 -0.793361
118 1 0.549075 0.0719769 0.500147 -0.669287 0.0864494 -0.319438
119 1 0.387469 0.0794259 0.497404 -0.118651 -0.727963 0.0407309
120 1 0.595543 0.947216 0.500456 -0.317649 -0.932349 -1.03599
121 1 0.594721 0.905016 0.500255 -0.507853 0.445001 -0.034837
122 1 0.481034 0.979137 0.501567 -0.773215 0.0500871 0.210509
123 1 0.579184 0.925436 0.501967 0.086797 -0.0322385 -0.0323918
124 1 0.464887 0.0459357 0.499553 0.16729 0.246672 -0.11198
125 1 0.704127 0.0969692 0.500895 0.398865 0.536372 0.771216
126 1 0.629526 0.0548518 0.499929 -0.142962 0.266797 -0.154527
127 1 0.471241 0.0821768 0.5025 0.725267 -0.0423643 0.12735
128 1 0.825723 0.120696 0.499448 -0.308015 0.899145 -0.812167
129 1 0.57054 0.114761 0.499624 -0.0409177 0.0636371 0.280185
130 1 0.855939 0.0448417 0.500434 -0.690637 0.159833 0.610068
131 1 0.784934 0.145089 0.49932 0.297309 0.257897 0.199428
132 1 0.817896 0.170151 0.498966 -0.0958859 -0.335646 -0.231917
133 1 0.765254 0.0336803 0.49979 0.50953 0.0326765 -0.17757
134 1 0.757021 0.107367 0.499951 1.34356 -0.69096 0.606013
135 1 0.628122 0.102815 0.499569 -0.157309 -0.5662 0.483106
136 1 0.831104 0.012357 0.501061 -0.3006 -0.29905 -0.0476551
137 1 0.757338 0.0801596 0.498708 0.0212577 -0.441455 -0.158037
138 1 0.817647 0.0565748 0.499815 -0.581453 -0.77046 0.0621841
139 1 0.77185 0.990302 0.501255 0.0505049 -0.798644 0.0100527
140 1 0.800339 0.0839166 0.4991 0.522534 0.506989 0.0643751
141 1 0.811293 0.029246 0.499759 0.65994 0.228679 -0.192586
142 1 0.870447 0.220464 0.498005 0.158776 0.655711 0.303549
143 1 0.841851 0.16386 0.498833 -0.123921 0.300065 -0.477664
144 1 0.844752 0.995964 0.50163 -0.816294 -0.426423 0.769986
145 1 0.78454 0.110667 0.498783 -0.34561 -0.255266 -1.27317
146 1 0.863548 0.955348 0.502087 -0.352629 0.421287 -0.192706
147 1 0.8484 0.896337 0.501377 -0.240622 0.081057 -0.00793598
148 1 0.770432 0.855608 0.502504 0.289802 0.371135 0.116405
149 1 0.915421 0.945703 0.500542 0.239214 -0.443923 0.623696
150 1 0.799237 0.984935 0.501378 0.583223 -0.103663 0.254943
151 1 0.806561 0.00393369 0.499436 -0.20951 -0.558612 -0.634092
152 1 0.918667 0.988422 0.500908 -0.501438 0.44785 -0.186851
153 1 0.978059 0.00532748 0.500037 0.232273 -0.803667 -0.0795347
154 1 0.91756 0.00861531 0.499458 -0.354759 0.44203 -0.264918
155 1 0.894049 0.986196 0.501374 -0.182184 0.168573 -0.44084
156 1 0.933684 0.133031 0.498757 0.472703 -0.795661 0.341134
157 1 0.975699 0.0456801 0.499967 0.425693 -0.306185 -0.147201
158 1 0.963642 0.167411 0.500082 -0.433608 -0.00908561 -0.229933
159 1 0.99532 0.916299 0.499995 0.212321 0.48788 -0.204535
160 1 0.996935 0.990288 0.500296 -0.508696 0.279365 0.70186
161 1 0.143766 0.121477 0.50072 0.0313937 0.413717 0.628592
162 1 0.0845931 0.141655 0.500802 0.696021 0.348 0.124776
163 1 0.137723 0.0979327 0.501512 -0.0251628 0.0191883 0.795228
164 1 0.0725687 0.0697608 0.501823 0.786687 0.000468393 -0.41353
165 1 0.034334 0.895836 0.50218 0.208018 0.587419 -0.226389
166 1 0.957908 0.098297 0.498141 -0.292759 -0.51928 -0.740289
167 1 0.0518815 0.966298 0.500772 -0.885774 -0.0217441 -1.08073
168 1 0.187188 0.225669 0.498824 0.112007 -0.25815 0.771875
169 1 0.120217 0.106284 0.499956 0.664113 0.526331 0.220631
170 1 0.108374 0.0528218 0.499838 0.0158819 -0.484111 0.693228
171 1 0.118225 0.077006 0.500855 0.313518 -0.541204 0.231592
172 1 0.198541 0.152623 0.497328 -0.314624 -0.0903789 -0.844631
173 1 0.141926 0.968711 0.500105 -1.46286 0.798569 0.0780632
174 1 0.161247 0.101303 0.500998 -0.237416 -0.605243 -0.953342
175 1 0.111595 0.0323853 0.500544 0.193754 -0.0935518 -0.612461
176 1 0.135944 0.184076 0.49885 -0.325984 -0.353878 0.562403
177 1 0.0726304 0.118085 0.50072 1.30617 0.0377226 -0.0159681
178 1 0.378063 0.1498 0.501466 -1.03812 0.438009 -0.203007
179 1 0.0365018 0.121323 0.501461 0.135097 0.0982526 0.470087
180 1 0.229752 0.216292 0.499237 0.0830694 -0.125226 0.16924
181 1 0.138317 0.210356 0.500877 0.11482 -0.162747 -0.387066
182 1 0.205414 0.184021 0.500155 -0.143573 1.49851 0.123553
183 1 0.222716 0.124447 0.498465 0.552025 0.254426 0.0126483
184 1 0.204249 0.119591 0.499791 -0.49245 0.2496 0.319301
185 1 0.347069 0.08873 0.500603 -0.271754 0.121223 0.00793163
186 1 0.206484 0.0760533 0.499237 0.0622377 0.455429 0.139986
187 1 0.339969 0.19448 0.499698 -1.04799 0.312743 -0.113827
188 1 0.3567 0.154237 0.500581 -0.105833 -0.308881 -0.00095791
189 1 0.354872 0.208706 0.498552 0.348237 -0.0255845 0.262457
190 1 0.255991 0.220596 0.501518 0.388939 0.142738 0.0149912
191 1 0.441655 0.382034 0.499759 -0.642258 0.0840779 -0.279514
192 1 0.444784 0.156495 0.499329 0.621383 -0.561588 -0.229241
193 1 0.298923 0.0364558 0.50083 -0.786946 0.474747 0.275945
194 1 0.356132 0.133421 0.499312 -0.49943 0.333807 -0.119032
195 1 0.302625 0.0102564 0.50025 0.575428 -0.156748 -0.33061
196 1 0.492437 0.956728 0.501351 0.465682 -0.443528 -0.369592
197 1 0.473023 0.998013 0.500397 -0.279841 -0.322617 -0.507306
198 1 0.452307 0.06956 0.500604 -0.336317 -0.0588128 -0.116103
199 1 0.528234 0.994592 0.501115 0.261484 -0.567427 0.737117
200 1 0.486399 0.0101855 0.502357 0.569953 0.369852 -0.118108
201 1 0.525237 0.116826 0.500398 0.001361 0.795905 -0.425444
202 1 0.514056 0.097267 0.499316 -0.237288 -0.217083 0.190058
203 1 0.628867 0.00871186 0.500307 -0.697196 -1.12547 -0.259067
204 1 0.664981 0.0757869 0.496717 0.256834 -0.870207 -0.0397323
205 1 0.513769 0.075284 0.500498 0.171224 0.0288692 -0.534215
206 1 0.608252 0.0931839 0.498495 -0.125098 0.688329 -0.732307
207 1 0.766897 0.258088 0.498693 0.589411 0.280919 0.0737695
208 1 0.587292 0.0973927 0.498468 -0.639224 0.68135 0.143194
209 1 0.751432 0.240849 0.499703 0.613656 0.678151 -0.728581
210 1 0.57705 0.0781224 0.498814 -0.0108358 0.971928 -1.02398
211 1 0.689409 0.114445 0.5001 0.468214 0.127002 0.402054
212 1 0.775291 0.0903665 0.497744 0.138369 0.230531 -0.375156
213 1 0.778624 0.184026 0.499321 0.282168 0.535803 -0.0660502
214 1 0.801713 0.127035 0.499845 0.232122 -0.220563 0.496551
215 1 0.849448 0.108407 0.500448 0.0681554 -0.271302 0.23994
216 1 0.698621 0.135399 0.499622 0.620237 -0.25702 -0.0421823
217 1 0.865185 0.998293 0.49922 -0.681166 0.031511 -0.318992
218 1 0.806326 0.193995 0.498226 0.222383 -0.433966 0.510149
219 1 0.879112 0.130295 0.50112 0.422373 0.0999552 -0.178189
220 1 0.913009 0.0527407 0.500867 0.270678 -0.156201 -0.684364
221 1 0.850232 0.0198853 0.500048 -0.32469 0.646723 -0.507077
222 1 0.819903 0.0779772 0.502092 0.053237 0.328474 -0.339956
223 1 0.761885 0.208548 0.499009 0.731925 0.814985 -0.287031
224 1 0.951827 0.0430199 0.499468 0.36355 -0.651522 -0.319631
225 1 0.88488 0.0443028 0.500457 0.53343 -0.131645 -0.238873
226 1 0.867833 0.980196 0.502707 0.290322 -0.338837 -0.0736871
227 1 0.823085 0.984712 0.500973 0.388749 -0.510348 0.343305
228 1 0.800559 0.961717 0.50085 0.38237 0.298421 -0.0490266
229 1 0.844776 0.921184 0.503133 -0.452412 0.378399 0.548763
230 1 0.953436 0.141885 0.500181 -0.434025 -0.0406559 0.532018
231 1 0.870598 0.0606506 0.500431 0.444303 -0.918392 0.114493
232 1 0.97494 0.192285 0.502081 1.00238 -0.00287427 0.117081
233 1 0.957096 0.971496 0.500726 0.487377 0.126781 -0.0797641
234 1 0.930794 0.0984835 0.500365 0.111177 0.199238 -0.536298
235 1 0.00372481 0.0436792 0.499776 0.535096 -0.25164 -0.259767
236 1 0.960218 0.0617597 0.500246 0.322772 -0.311358 -0.543914
237 1 0.869698 0.0295605 0.498316 -0.638929 0.255794 -0.00852999
238 1 0.20968 0.230438 0.499745 0.0876019 0.190048 -0.324533
239 1 0.0351035 0.148454 0.5001 -0.491734 0.435227 -0.20841
240 1 0.921618 0.147235 0.502091 -0.546874 0.123649 -0.75195
241 1 0.0497733 0.0117726 0.500609 0.743888 0.727889 -0.108095
242 1 0.117257 0.201644 0.499132 0.146668 -0.326576 0.271903
243 1 0.116856 0.0152742 0.500389 -1.03653 -0.616518 -0.141753
244 1 0.186928 0.195226 0.499339 0.0315004 0.445762 -0.475755
245 1 0.017022 0.169436 0.501052 -0.164917 -0.328232 -0.556252
246 1 0.0565025 0.105627 0.499969 -0.183092 -0.0246147 -0.147308
247 1 0.107901 0.246816 0.499623 0.40846 0.578563 0.521882
248 1 0.154401 0.168608 0.4993 -0.436329 0.117886 0.686762
249 1 0.171194 0.21327 0.499629 -0.276294 -0.722264 -0.210393
250 1 0.108635 0.149692 0.500686 -0.0763465 -0.494322 0.172207
251 1 0.235027 0.146636 0.499424 -0.35969 -0.802366 -0.118854
252 1 0.190789 0.134987 0.49913 0.709409 0.0843187 0.699146
253 1 0.165329 0.129613 0.499 0.512751 -0.238816 0.13902
254 1 0.174875 0.179427 0.500069 0.317061 0.0484542 -0.451029
255 1 0.0952327 0.977187 0.499593 -0.233546 0.1065 0.154846
256 1 0.308799 0.14525 0.498855 0.228455 0.709342 0.05396
257 1 0.0790764 0.0939682 0.500524 -0.00537681 -0.0243179 -0.278086
258 1 0.1593 0.317756 0.498131 0.401951 -0.654901 0.0225422
259 1 0.00941808 0.137477 0.499995 -0.101069 0.766074 1.16675
260 1 0.225675 0.275931 0.502277 0.288484 -0.427315 0.365345
261 1 0.218144 0.160715 0.499351 -0.446973 0.327271 -0.11889
262 1 0.19282 0.170671 0.499335 0.217954 0.669562 0.252213
263 1 0.307968 0.167669 0.498932 -0.341074 -0.683626 0.260424
264 1 0.288487 0.121045 0.500309 0.297687 0.100838 -0.603456
265 1 0.247776 0.199344 0.500494 0.574735 -0.340496 -0.0525601
266 1 0.179169 0.111091 0.501077 0.513034 0.225807 -0.344634
267 1 0.327469 0.0726915 0.500736 0.524266 0.445016 0.0841378
268 1 0.396674 0.160508 0.500081 -0.866229 -0.63115 0.225767
269 1 0.381169 0.17472 0.499904 -0.111518 0.140743 -1.02158
270 1 0.309132 0.123308 0.498576 -0.0995593 0.62725 0.450269
271 1 0.391614 0.229729 0.499551 -0.24299 -0.0797801 0.0276463
272 1 0.372201 0.301994 0.501115 1.45035 -0.266914 -0.551073
273 1 0.437365 0.225317 0.498565 0.489696 0.676691 -0.825496
274 1 0.343656 0.230106 0.501088 0.511291 -0.781918 -0.0400123
275 1 0.451959 0.176291 0.50007 0.103046 0.398468 0.147733
276 1 0.426306 0.106737 0.498887 -1.01275 -0.753342 0.714974
277 1 0.406107 0.0917382 0.498646 -0.536312 -0.265152 0.672116
278 1 0.420131 0.203119 0.501213 0.424578 0.231673 0.317142
279 1 0.395858 0.11046 0.498781 0.114905 0.251101 0.545475
280 1 0.392889 0.061 0.499808 0.815874 0.105284 -0.0368197
281 1 0.413376 0.0688748 0.499446 0.02246 -0.357036 -0.434741
282 1 0.493973 0.0695104 0.501301 0.0786373 0.792827 0.64592
283 1 0.552407 0.0127157 0.498798 -0.16151 -0.566487 0.662799
284 1 0.604446 0.0453586 0.499496 -0.0614198 -0.5094 0.229545
285 1 0.732595 0.105516 0.500693 0.25854 -0.175635 0.262352
286 1 0.627717 0.0775332 0.498308 0.366739 0.819212 0.668416
287 1 0.431835 0.0825242 0.499767 -0.373546 -0.667072 0.512691
288 1 0.647707 0.0878176 0.500449 0.102692 -0.474074 0.291267
289 1 0.637187 0.130973 0.499368 0.431269 0.0412999 -0.309266
290 1 0.812895 0.146408 0.498219 -0.225836 -0.00241139 0.773773
291 1 0.627117 0.149949 0.499362 0.205037 -0.0141076 -0.267176
292 1 0.601118 0.0704239 0.498562 0.123916 -0.490432 -0.705789
293 1 0.79414 0.168534 0.499206 -0.225251 0.505946 0.200123
294 1 0.714602 0.120591 0.501664 -0.440228 0.0881726 0.835817
295 1 0.834597 0.186284 0.498541 0.583741 0.700928 0.491947
296 1 0.642615 0.18885 0.501206 -0.064977 -0.0596361 -0.148265
297 1 0.855936 0.198054 0.499941 -0.0152844 0.166785 0.555265
298 1 0.669097 0.124521 0.501123 -1.09491 -0.417405 0.139369
299 1 0.822906 0.962113 0.500079 -0.190025 -0.831544 0.22371
300 1 0.894907 0.234288 0.499398 0.686989 0.233933 0.608529
301 1 0.856889 0.127984 0.501343 -0.573025 -0.519986 0.390017
302 1 0.792102 0.303512 0.500537 -0.58475 0.177415 -0.0299768
303 1 0.871821 0.107618 0.503102 -0.357825 0.312778 -0.739747
304 1 0.935793 0.159974 0.500956 -0.487974 0.10491 0.688694
305 1 0.90611 0.0946665 0.501676 -0.126711 0.00287004 0.404859
306 1 0.907561 0.16323 0.500987 -0.615279 -0.922274 -0.100376
307 1 0.934498 0.9618 0.499906 0.802698 -0.0583227 0.444033
308 1 0.856371 0.0815424 0.500787 0.0194824 0.398024 -0.432067
309 1 0.931429 0.0340318 0.501091 0.664993 -0.225539 0.217229
310 1 0.842762 0.973102 0.501374 -0.15591 0.666541 -0.518365
311 1 0.905813 0.136672 0.500623 -0.126608 -0.356464 -0.397545
312 1 0.904616 0.191959 0.501268 -0.926329 0.558386 -0.179269
313 1 0.937431 0.985736 0.501362 0.83707 -0.484606 -0.229588
314 1 0.984552 0.102091 0.500027 0.416043 0.186329 0.202849
315 1 0.920419 0.115843 0.50097 0.106955 0.912034 0.856857
316 1 0.950465 0.180221 0.503834 1.19191 0.0819057 -0.366769
317 1 0.993144 0.0590379 0.497989 -1.01107 -0.327435 -0.312107
318 1 0.023704 0.3564 0.500246 0.731437 0.508677 -0.59006
319 1 0.936066 0.0616065 0.500104 0.0761777 0.294213 0.213355
320 1 0.172506 0.152104 0.498157 0.705228 -0.147637 -0.539752
321 1 0.15763 0.192643 0.500383 -0.150851 0.482234 0.245596
322 1 0.00514851 0.0894129 0.500932 0.0949605 0.327283 0.148951
323 1 0.0880394 0.163413 0.500078 0.563026 -0.339757 -0.43758
324 1 0.088141 0.252542 0.499045 -0.0489853 -0.680651 -0.159981
325 1 0.130639 0.242789 0.500293 0.517322 -0.314815 0.298176
326 1 0.0381986 0.208286 0.501811 -0.520733 -1.0713 -0.533725
327 1 0.16775 0.301583 0.499827 0.490734 -0.389603 0.337477
328 1 0.0411615 0.267527 0.501556 -0.523174 0.426438 -0.197895
329 1 0.20114 0.271646 0.500421 -0.481347 -0.198741 -0.638735
330 1 0.142679 0.145828 0.496595 0.539756 -0.0868953 0.364594
331 1 0.154815 0.347099 0.497036 0.189469 -0.0256351 0.330313
332 1 0.107016 0.299964 0.497638 0.205261 -0.544128 0.158193
333 1 0.978016 0.147919 0.499817 -0.131632 -0.645737 -0.0531399
334 1 0.123789 0.28343 0.500315 -0.289771 -0.336024 -0.00692793
335 1 0.0908304 0.231994 0.501544 0.794679 -0.284725 -1.03505
336 1 0.0735962 0.177624 0.501551 -0.147341 0.0644532 -1.12445
337 1 0.248053 0.12725 0.501613 0.873971 0.450652 -0.0114487
338 1 0.151586 0.279446 0.498491 0.255046 -0.0630326 0.369689
339 1 0.302387 0.102144 0.499205 0.418902 -0.101784 -0.715779
340 1 0.2542 0.153648 0.499849 -0.420023 -0.0242526 -0.311373
341 1 0.275919 0.165821 0.497672 0.00051784 -0.0459258 -0.2788
342 1 0.238678 0.173008 0.501512 -0.576675 -0.06358 0.214256
343 1 0.36235 0.0251166 0.498253 0.169636 0.313312 -0.331579
344 1 0.282688 0.0123381 0.49884 -0.405473 0.092832 0.583771
345 1 0.270745 0.136832 0.498653 -0.303181 0.391253 -0.571831
346 1 0.332426 0.144833 0.498001 -0.0804349 0.33852 0.315005
347 1 0.371292 0.194578 0.498423 -0.47592 -0.139186 0.152289
348 1 0.24749 0.261814 0.501544 -0.407208 0.768506 -0.211257
349 1 0.354901 0.175729 0.499862 0.218585 -0.196531 0.102498
350 1 0.326186 0.2139 0.500446 -0.456389 -0.167963 -0.38105
351 1 0.273003 0.199968 0.50055 0.0181941 -0.201349 0.460125
352 1 0.324604 0.263708 0.501687 0.223034 0.818648 -0.0219279
353 1 0.406045 0.178598 0.499871 0.21997 -0.529012 -0.101273
354 1 0.455061 0.198172 0.500909 -0.0155496 -0.276314 0.710509
355 1 0.387155 0.283832 0.500513 0.280361 0.113161 0.167459
356 1 0.462361 0.218913 0.500241 0.585305 -0.216662 -0.27363
357 1 0.392911 0.0378822 0.499318 -0.411217 1.09372 -0.227279
358 1 0.36796 0.048057 0.49728 -0.679527 0.411203 0.183433
359 1 0.357866 0.110972 0.498885 -1.07046 -0.593509 0.444197
360 1 0.458508 0.136334 0.499306 0.891737 -0.0308997 0.178657
361 1 0.376662 0.127973 0.500786 0.691275 -0.462127 0.688917
362 1 0.488934 0.151027 0.500553 0.725916 -0.292777 0.115699
363 1 0.671946 0.0990864 0.499052 0.332406 -0.387014 0.0394194
364 1 0.505324 0.128224 0.499301 -0.18603 0.0141322 -0.582614
365 1 0.604224 0.142856 0.496922 -0.238392 -0.381471 0.525435
366 1 0.553452 0.178302 0.50029 0.47016 0.487669 0.645827
367 1 0.649442 0.112608 0.500557 -0.261116 0.646054 -0.0241312
368 1 0.595612 0.116036 0.498634 -0.215419 0.237441 0.543449
369 1 0.724864 0.140558 0.501917 0.587372 -0.256077 -0.124348
370 1 0.657369 0.167745 0.502448 0.607327 -0.00675178 -0.142987
371 1 0.663601 0.211919 0.499826 -0.30163 -0.540146 0.921542
372 1 0.648577 0.234073 0.500161 -0.162569 -1.03273 0.390916
373 1 0.842547 0.0635138 0.499833 -0.29132 -0.512425 0.563654
374 1 0.597321 0.19016 0.499254 0.438679 -0.172112 -0.587946
375 1 0.800405 0.228007 0.499488 -0.299309 0.6352 0.926718
376 1 0.704212 0.198745 0.500379 0.119934 0.901126 -0.139373
377 1 0.677211 0.149169 0.499699 -0.195385 -0.259277 0.050933
378 1 0.637016 0.312755 0.499988 0.0114569 0.551429 1.08666
379 1 0.823049 0.213621 0.499496 -0.0636178 0.0745328 -0.462211
380 1 0.773452 0.229733 0.498915 -0.187761 -0.95079 0.23386
381 1 0.84476 0.227775 0.49814 -0.464507 0.161877 0.517956
382 1 0.768888 0.16259 0.500337 -0.644587 0.0385644 0.79268
383 1 0.888107 0.214472 0.501058 -0.148382 0.538735 0.367154
384 1 0.868257 0.244624 0.498271 0.469862 0.96731 -0.317047
385 1 0.942073 0.2277 0.499322 -0.076082 -0.0968695 -0.0974539
386 1 0.88304 0.175117 0.501178 -0.291902 -0.273615 -0.523539
387 1 0.957361 0.241039 0.498854 -0.434719 -0.206661 0.399853
388 1 0.914594 0.256431 0.497145 -0.505775 -0.293151 -0.295095
389 1 0.889732 0.0124681 0.501185 -0.650954 -0.726467 -0.0950202
390 1 0.00402253 0.186313 0.502256 0.383052 0.17524 0.34824
391 1 0.833112 0.0389238 0.500856 1.05473 -0.113316 0.0106161
392 1 0.0597252 0.195915 0.502399 0.710681 -0.0806811 -0.193352
393 1 0.831274 0.0933416 0.50007 -0.271238 0.781955 -1.06009
394 1 0.976893 0.253442 0.499333 0.324919 0.501943 -0.0330917
395 1 0.949623 0.0812364 0.499427 0.342988 -0.0127725 0.127481
396 1 0.968544 0.221532 0.501639 0.590744 -0.180123 -0.269397
397 1 0.933204 0.201049 0.502197 0.0512135 -0.109452 -0.102507
398 1 0.0108515 0.0654548 0.499639 0.295169 -0.252776 -0.299305
399 1 0.0550353 0.223879 0.500763 0.270804 -0.0437617 0.295763
400 1 0.979752 0.079723 0.501324 -0.0432586 0.376197 -0.225328
401 1 0.053167 0.248867 0.50154 -0.0881372 -0.357226 -0.19511
402 1 0.0587474 0.286464 0.499835 -0.0684154 -0.354425 -0.055394
403 1 0.990077 0.210862 0.501811 0.409471 -0.0165832 -0.100094
404 1 0.989502 0.124472 0.500534 0.138687 0.0335664 -0.0311615
405 1 0.00136933 0.158536 0.498948 -0.435185 -0.272337 0.0654641
406 1 0.0142056 0.207724 0.500927 0.671592 -0.403123 0.471555
407 1 0.0120143 0.334619 0.498396 0.0438112 -0.455144 -0.34169
408 1 0.0863916 0.383 0.500392 0.233899 0.689046 0.587274
409 1 0.153706 0.22651 0.500347 -0.287858 -0.979771 -0.00793648
410 1 0.067116 0.480167 0.498148 0.964382 -0.518868 -0.33316
411 1 0.191265 0.319007 0.499156 -0.136823 0.328623 0.454729
412 1 0.140748 0.299872 0.498909 -0.032846 -0.00596865 -0.472844
413 1 0.201457 0.373961 0.499651 0.37318 -0.297431 -0.0204013
414 1 0.0864912 0.285025 0.499171 -0.0177946 0.305239 -0.540267
415 1 0.0630076 0.154451 0.499781 0.161754 -0.0609801 -0.239453
416 1 0.249632 0.350234 0.498534 -0.62253 0.301452 0.409912
417 1 0.190311 0.293512 0.500374 -0.304166 -1.07452 0.0270577
418 1 0.216443 0.254767 0.499878 -0.0970496 -0.546991 0.552085
419 1 0.259021 0.181955 0.49816 0.651591 -0.244337 0.0910331
420 1 0.197214 0.249304 0.499959 0.332561 0.788913 -0.021061
421 1 0.171368 0.334164 0.49863 -0.190795 -0.217914 0.221664
422 1 0.258515 0.279651 0.500053 0.248502 0.587625 0.609635
423 1 0.261955 0.240996 0.502241 -0.707788 0.120918 -0.14774
424 1 0.276709 0.260618 0.500512 0.305222 0.982775 0.256967
425 1 0.278403 0.223443 0.501581 0.0140444 -0.552077 -0.580597
426 1 0.239454 0.298195 0.500854 0.507797 0.0477936 -0.0457878
427 1 0.30181 0.207315 0.499848 -0.63109 0.136616 -0.294861
428 1 0.212563 0.356442 0.501289 0.312646 -0.345988 -0.785547
429 1 0.230127 0.240436 0.500747 -0.267998 -0.117544 -0.238421
430 1 0.412402 0.290574 0.499508 0.0771259 0.00464461 0.37874
431 1 0.348737 0.254936 0.501413 -0.0613901 -0.470793 0.0254854
432 1 0.488132 0.238057 0.499906 -0.266646 0.234567 0.342969
433 1 0.305675 0.225966 0.502382 -0.174353 1.04452 -0.328519
434 1 0.393843 0.202315 0.500684 0.194614 0.643154 0.011012
435 1 0.435057 0.246943 0.49875 0.189701 0.152325 0.0975801
436 1 0.434667 0.408061 0.499722 0.874292 0.048234 0.0347749
437 1 0.412787 0.221496 0.500227 0.0280121 0.39969 0.0200977
438 1 0.479386 0.198006 0.50044 -0.655265 0.0468908 0.0230859
439 1 0.42046 0.267244 0.497848 0.0211541 0.518501 -0.462268
440 1 0.468309 0.156426 0.499528 -0.280577 0.0140975 0.454336
441 1 0.367826 0.236111 0.500153 -0.119361 0.00976828 0.000698352
442 1 0.340483 0.037116 0.498242 -0.803103 -0.305154 0.770928
443 1 0.414236 0.121596 0.50052 -0.137708 -0.735213 -0.10722
444 1 0.475723 0.264736 0.499274 -0.148378 0.656432 -0.121544
445 1 0.446552 0.120758 0.500427 -0.317758 -0.150879 0.162777
446 1 0.41389 0.149054 0.50067 -0.567397 0.411383 0.374839
447 1 0.650391 0.0613318 0.498699 0.180721 -0.425908 0.0405231
448 1 0.534125 0.160418 0.50013 0.153066 0.745079 0.608381
449 1 0.541497 0.0359305 0.499035 -0.088104 -0.0281823 -0.101863
450 1 0.582852 0.160174 0.49912 -0.593695 -0.247347 1.05815
451 1 0.602064 0.168457 0.499775 -0.112375 -0.333336 -0.268297
452 1 0.65187 0.146204 0.499846 -0.296399 0.505108 0.881753
453 1 0.647982 0.275962 0.501232 0.340691 0.162958 0.372992
454 1 0.555767 0.134417 0.498919 0.385426 -0.225507 0.626377
455 1 0.788019 0.207384 0.497255 -0.507954 0.011956 -0.232877
456 1 0.749014 0.150937 0.501059 0.327885 -0.321716 0.290237
457 1 0.861794 0.150195 0.500148 0.987634 0.0518595 0.4777
458 1 0.728577 0.331443 0.499132 0.288183 0.426683 -0.0425359
459 1 0.740327 0.21866 0.498969 -0.323531 -0.537015 -0.063317
460 1 0.956834 0.32506 0.499017 0.433389 0.756089 0.639032
461 1 0.832511 0.322634 0.49932 0.262786 -0.302229 -0.531808
462 1 0.733635 0.196717 0.499689 -0.407891 -0.408938 -0.488907
463 1 0.810566 0.257033 0.497006 0.414707 -0.0684953 -0.309705
464 1 0.902572 0.31073 0.49769 -0.322128 0.0601096 -0.0336164
465 1 0.879437 0.193762 0.499538 0.170994 -0.469875 0.226815
466 1 0.957212 0.302644 0.499697 0.383728 0.503665 0.114662
467 1 0.868176 0.293615 0.499229 0.106587 -0.105225 0.559415
468 1 0.939074 0.341635 0.497244 0.889775 0.335617 0.732061
469 1 0.0746441 0.207836 0.501476 0.000813661 0.23318 0.566448
470 1 0.0676181 0.404694 0.499809 -0.1369 -0.0620157 0.522696
471 1 0.943372 0.115514 0.500922 0.143009 0.420226 0.0748024
472 1 0.0701778 0.237818 0.500326 -0.503033 -0.262252 -0.128326
473 1 0.894999 0.114791 0.501352 0.0187293 -0.315979 0.966466
474 1 0.922734 0.0789932 0.499966 0.330839 0.183194 -0.0258778
475 1 0.0463882 0.171422 0.501148 -0.442383 -0.276088 0.345262
476 1 0.957378 0.996645 0.501077 -0.267929 0.291242 0.0346719
477 1 0.0323897 0.0979961 0.498565 0.372923 -1.31766 0.112041
478 1 0.918488 0.277091 0.498852 -0.20031 0.125382 0.364072
479 1 0.0130083 0.112299 0.499745 0.796478 0.268113 0.528591
480 1 0.0907272 0.191332 0.499802 0.38918 0.166807 -1.24688
481 1 0.992461 0.233599 0.500995 -0.030803 0.322912 0.366044
482 1 0.0358125 0.230249 0.500452 1.07653 -0.25308 -0.470008
483 1 0.0518474 0.419199 0.497851 0.400479 -0.226813 0.491397